TITLE=RKDG
VARIABLES=X , Y , rho , u , v , p, Ma , FLAG
ZONE T= T1 N= 1048 , E= 1999 , ZONETYPE=FETRIANGLE
DATAPACKING=BLOCK
VARLOCATION=([1-2]=NODAL,[3-8]=CELLCENTERED)
DT=(SINGLE SINGLE SINGLE SINGLE SINGLE SINGLE SINGLE SINGLE)
1  
20.5  0.5  -19.5  0.5  0.975443  0.947132  
0.915521  0.88031  0.842047  0.803577  0.765316  0.727145  
0.689116  0.651279  0.61369  0.576401  0.539473  0.502964  
0.466942  0.431474  0.396637  0.36251  0.32918  0.296736  
0.265276  0.234899  0.205711  0.177819  0.151333  0.126367  
0.103038  0.0814682  0.060326  0.0407296  0.0271534  0.017574  
0.0108064  0.00496386  0.000915267  0  0.00326199  0.00860082  
0.0150041  0.0231351  0.0341871  0.0492441  0.0682747  0.0888126  
0.110262  0.13252  0.156358  0.181689  0.208425  0.236474  
0.265745  0.296147  0.32759  0.359983  0.393241  0.42728  
0.462022  0.49739  0.533315  0.569728  0.606567  0.643772  
0.681288  0.719058  0.757032  0.795156  0.83338  0.871653  
0.910456  0.940391  0.960339  0.98027  19.8007  17.5361  
13.9187  9.91732  5.35393  -4.7922  -10.0286  -14.3821  
-17.174  -18.9008  -18.8018  -16.5405  -12.9274  -8.92425  
-4.35774  5.7922  11.0376  15.396  18.1806  19.9023  
-0.00589756  -0.00572585  -0.00453714  -0.0131971  -0.00511472  -0.0125778  
-0.0132203  -0.00288537  0.00243758  -0.0113632  0.00412236  -0.0204  
-0.020922  -0.0128902  -0.0047285  -0.0197388  -0.00957156  0.00868732  
-0.000536898  -0.0212437  0.00858389  0.00349516  -0.0185986  -0.0280969  
-0.0278579  -0.0124928  -0.0292395  -0.0209234  -0.00460008  -0.0277249  
0.0136022  -0.00678944  -0.0166676  0.00420028  0.0158584  -0.0303482  
-0.0345787  -0.0352798  0.00473183  -0.026359  -0.0195844  -0.036512  
-0.0130365  -0.0393085  -0.0293949  -0.0144716  -0.00231712  0.0245141  
-0.00679007  -0.0371384  0.0117162  0.0148024  -0.0234224  0.0265527  
-0.0442414  -0.0421918  -0.0225511  0.00649949  -0.0340084  -0.046348  
-0.0114469  0.00479985  0.0235883  0.037149  -0.0248833  -0.0537519  
-0.0413153  0.0228861  -0.0132576  -0.0505705  0.0418522  -0.0613167  
-0.059218  0.0199011  -0.0354143  -0.0403484  0.000739821  -0.0056829  
-0.0248049  0.0534322  0.0374325  0.0159399  0.0627562  0.0384519  
0.0728988  -0.0747935  -0.0698444  -0.0596661  0.0876483  0.110802  
-0.0613917  -0.0227641  0.0944697  0.0548548  0.135516  0.117167  
0.0344997  0.0156993  0.0548656  0.0731286  -0.044597  0.997976  
-0.0856415  0.161655  -0.0834083  0.140887  0.0759001  0.0333394  
-0.0526594  -0.0213977  0.0042145  0.189262  -0.00202603  0.0923977  
0.165977  0.97954  0.099161  0.218248  0.192496  -0.086146  
0.998943  0.117507  0.0525801  0.248488  0.957506  0.220384  
0.122814  -0.103115  0.0249054  -0.0857535  0.0652241  1.02223  
1.02549  0.279864  0.24954  -0.0719806  0.143393  -0.0324303  
0.147651  0.279861  0.312266  0.970919  1.05481  0.934943  
0.311247  0.0159811  0.345588  0.170658  0.0770913  1.02446  
0.173981  0.343603  0.379736  1.00808  -0.0452587  0.0958541  
0.376845  0.414616  0.19942  -0.113337  0.0389375  -0.0116882  
0.201765  0.410887  0.450146  0.102224  0.00288433  -0.116819  
0.445648  0.938333  0.486246  1.05493  0.229532  0.0442941  
0.481052  0.898434  0.522843  0.230951  -0.0778417  0.123358  
0.517025  1.04682  0.559873  0.5535  0.597271  0.12449  
0.26088  0.590412  0.634983  0.26132  0.627702  0.672952  
0.665308  0.711127  0.703166  0.749458  0.741279  0.787892  
0.77982  0.826381  0.902423  0.818907  0.293291  0.148673  
0.864753  0.292813  -0.107081  0.858498  0.0632348  0.152483  
1.04415  1.00288  0.326693  0.325235  0.0146242  0.974448  
0.178552  1.092  0.360929  0.0828817  0.35858  1.08845  
0.178235  -0.140623  -0.0807998  0.39595  0.392702  0.022828  
-0.123117  -0.0385404  0.10898  0.431615  0.427581  0.207006  
1.02574  0.209355  -0.0382026  0.467888  0.463091  0.504648  
0.499205  0.96976  0.239621  1.09073  0.541869  0.535808  
0.238398  0.579446  0.572882  0.610323  0.617362  0.648104  
0.655524  0.270781  0.133526  0.686098  0.693919  0.271741  
0.724202  0.73246  1.0793  0.762817  0.771117  0.887196  
0.803126  0.809825  0.932443  0.84865  0.887962  0.844705  
-0.149662  0.050993  0.305473  0.303219  0.1653  0.929169  
-0.0891578  1.1267  0.338791  -0.120276  0.337981  -0.162755  
-0.131682  0.0728661  0.374997  1.07738  0.37136  0.192827  
-0.0205522  0.410016  0.407313  -0.0843675  -0.0200659  1.13811  
1.01754  1.13179  0.447316  0.442289  0.227579  0.483659  
0.479268  0.521737  0.515555  0.113077  1.05642  0.559099  
-0.192426  0.553334  -0.0709082  -0.174745  0.597708  0.59069  
0.25898  0.629031  0.635843  0.983452  0.0192456  0.667108  
0.67478  1.13842  0.705518  0.713458  0.919942  0.742942  
0.75251  0.295188  0.782883  0.791368  0.874175  0.830421  
0.829471  0.870222  0.912924  0.128373  0.00640422  -0.135964  
0.328478  1.12337  0.968718  0.366648  1.18462  -0.20598  
0.173291  -0.157188  0.0654994  -0.22644  0.400091  0.0539514  
0.440799  -0.0758684  1.12526  0.473868  0.198491  -0.0279156  
0.516897  0.549695  1.19005  1.19774  0.241173  0.594449  
1.04738  0.627384  -0.201928  0.673089  -0.108676  0.705459  
0.112093  0.752228  0.891424  0.274615  0.775038  -0.265466  
1.10133  0.830361  0.911415  0.314684  1.20174  0.0407622  
-0.252727  0.950734  0.11913  -0.246529  0.350133  -0.0279643  
1.01719  0.391198  1.18053  -0.149453  0.0173029  -0.182964  
0.177368  0.426371  1.24963  1.26117  0.836587  0.469346  
-0.309736  -0.299614  1.00005  0.504285  0.548915  0.211631  
1.18974  -0.208614  0.584958  0.63  -0.0765866  0.669635  
0.254057  0.71279  0.756472  1.26381  0.795429  0.096139  
-0.100491  1.2762  0.865477  -0.262159  1.09442  0.29313  
0.935611  -0.151626  -0.359879  -0.0134529  1.15884  0.335455  
0.0707893  0.938171  -0.286477  1.28697  0.374248  1.32979  
-0.341975  0.151916  0.417161  -0.207101  -0.326849  0.454598  
1.24776  -0.23441  0.835227  0.176579  0.49844  -0.028873  
1.0652  0.537795  -0.414271  1.35387  0.582131  0.627094  
0.223184  0.668822  -0.398294  0.727707  0.762231  1.04079  
1.27303  0.857796  0.0736367  0.26653  -0.152983  -0.131567  
1.39683  1.15629  1.3569  -0.357952  0.316511  0.947381  
-0.325931  0.0371274  0.359202  0.131509  -0.476933  1.19439  
0.401011  -0.406738  0.441529  -0.0509468  1.39544  0.956841  
1.44418  0.484099  -0.456209  0.523994  0.814273  0.177133  
0.576397  -0.297974  1.3312  0.616688  -0.250802  0.676845  
-0.0632134  0.709585  -0.545431  0.838552  0.228222  1.47375  
1.0904  -0.524064  0.283161  0.0496645  1.09134  1.37681  
1.52496  1.23621  0.379947  0.0791475  -0.170167  -0.43332  
-0.424436  1.47737  1.53095  0.403784  -0.218574  0.942688  
-0.483316  -0.365982  -0.626052  1.25914  0.97559  0.567064  
0.597787  0.763684  -0.113718  1.5264  1.58618  -0.591525  
0.206223  -0.548094  0.781993  -0.396918  -0.0959019  1.44346  
0.24538  -0.298747  -0.711623  1.62907  1.12282  -0.688435  
1.16836  1.33495  1.66334  -0.50556  1.49964  0.0109175  
-0.57464  0.444313  0.340936  0.486962  0.917564  0.0744189  
1.63483  1.68757  -0.308343  0.675906  -0.816919  0.911531  
0.675591  1.35102  -0.206436  1.7729  0.188249  -0.546964  
1.68591  -0.767637  1.08601  -0.715083  -0.445976  -0.146244  
0.288373  1.5952  -0.926138  1.16303  1.8337  1.26818  
1.44114  0.431487  -0.897862  1.86182  -0.0403369  0.547297  
1.63532  0.838798  -0.784101  -0.694051  0.860348  0.0828892  
1.83845  -0.444762  1.85626  1.10975  -1.06163  1.49807  
-0.313383  2.04867  0.193024  0.682652  1.92178  -1.00504  
-0.750933  0.367672  -0.610593  -0.937858  -0.187812  1.79759  
-1.20259  1.03226  0.697092  1.4571  2.08632  2.1198  
-0.0922166  -1.16758  0.468482  0.938347  1.36025  -1.03358  
-0.916323  0.116719  -0.68599  2.09853  -1.37616  -0.470176  
1.81293  -0.434323  2.34105  1.70038  0.207169  1.26816  
2.11355  0.729362  2.30898  -1.30725  0.496831  0.894431  
-0.98181  2.24233  -0.8082  -1.22277  -0.258103  2.05813  
-1.55707  1.2107  1.67333  -0.145824  2.39956  -1.51548  
2.55539  0.56379  2.09552  0.98322  -1.34644  1.53018  
0.2118  -0.763921  -1.19759  2.43368  2.65981  -1.77992  
0.68526  -0.580882  0.247527  1.94493  2.51352  1.45954  
-1.69474  1.20427  -1.06003  -0.143947  -1.27815  -1.59164  
0.724408  2.3905  -2.011  -0.566516  2.98624  1.97114  
-0.207137  2.81829  -1.96192  2.51759  0.365236  3.0377  
1.17847  1.73134  -1.75463  -1.56237  -1.08897  2.86793  
-2.29114  0.894617  3.19354  0.323625  2.25343  -0.775655  
-2.19467  1.69927  -0.0456404  3.07837  -0.587775  -1.39146  
-1.70075  -2.06878  1.42298  1.02334  2.41258  -2.58863  
2.81604  3.48338  -0.301371  -2.51505  3.36447  0.55066  
1.99482  3.07622  -2.03772  -1.58706  -2.28825  3.64976  
-1.14603  -2.91654  3.4273  3.82961  0.432601  2.64202  
1.07552  -1.06582  1.62257  -0.577836  2.24947  -2.84553  
0.0826576  2.99591  -1.81495  3.74305  -2.18982  -2.70019  
1.5758  -3.31856  3.36163  1.15907  4.19056  -0.125278  
0.894785  -3.11785  4.06156  -0.689172  3.77107  -1.83268  
2.29776  -2.67255  -3.03369  4.4013  -1.26764  -3.68176  
0.46523  4.14852  4.64874  3.13339  -0.573647  -1.37351  
1.95312  2.8033  -3.67269  0.227168  3.69552  1.72309  
-2.33254  -2.708  4.54491  -3.75704  -0.549425  -4.25112  
1.3656  4.06569  5.07965  4.96261  1.03424  4.63003  
-2.17691  2.67082  -3.57104  -3.41653  -1.4112  0.436171  
-3.93145  -0.560343  5.17843  -4.76096  3.77079  2.40355  
5.71041  5.0833  -1.72426  3.45755  0.502548  -4.65653  
4.52528  1.82752  -2.97929  -3.46019  -4.47675  5.54824  
1.64364  -5.46304  -0.792173  -5.27663  6.24252  4.97511  
-2.48122  6.13608  5.70332  3.19994  -4.64761  -1.51354  
-4.31186  -0.619002  7.12315  3.03842  -6.21807  0.460288  
4.58116  1.10443  4.17917  6.29297  -2.23091  -5.9259  
6.90067  5.44951  -4.73031  -3.82078  -3.84675  -5.62832  
2.45186  8.00282  -7.03514  -1.0785  2.08099  6.1402  
-6.87247  0.163971  -2.52625  7.65418  3.78361  7.08834  
-5.52244  -6.06725  4.35769  8.94052  -8.03654  5.59544  
0.498488  2.2396  -5.50104  7.84133  -2.89261  -1.49509  
-7.63304  8.66496  6.77241  -4.92942  -7.24559  -4.29191  
10.0577  -9.07592  -1.45187  7.61652  2.51743  -8.86674  
0.840694  -1.09202  -3.36457  9.58193  -7.80515  4.48471  
8.89797  -7.13163  6.23157  11.2025  6.87092  -10.3488  
0.539543  -3.76375  -6.09225  9.79141  4.61329  2.73516  
-9.92118  10.8919  8.54458  -6.43005  -9.33936  0.159804  
12.6178  -11.7403  9.43916  -1.95077  3.16882  -2.82593  
-8.64241  -11.378  11.9981  -5.10708  5.42918  11.2916  
6.93206  -9.30741  -10.6129  13.9831  8.40645  -13.2352  
3.11253  0.601868  -4.89224  -7.67257  12.1894  13.7182  
-12.7854  -2.01439  -8.65478  -11.9824  11.1546  15.8412  
11.5707  -15.3947  -2.6583  -5.53688  0.434888  4.07786  
-10.8024  -14.447  15.0549  6.5716  10.3924  14.48  
-12.3745  17.0587  -13.5753  10.1329  -16.2692  0.637344  
3.20977  7.61062  -5.89949  15.0446  -9.6924  17.1137  
-2.28187  -15.5655  -14.8616  -1.7119e-050  
2.98372e-015  20  2.98372e-015  -20  -0.0038925  -0.00806584  
-0.0140691  -0.0208634  -0.0270032  -0.0320879  -0.0367503  -0.0413858  
-0.0460191  -0.0504852  -0.0545624  -0.0580556  -0.0608306  -0.0628196  
-0.0640161  -0.0644606  -0.0642242  -0.0633942  -0.0620672  -0.0603329  
-0.0582749  -0.0559581  -0.0534302  -0.0507161  -0.0478155  -0.0447044  
-0.0413336  -0.0376331  -0.033172  -0.0278383  -0.0229906  -0.0185661  
-0.0145299  -0.00976801  -0.00415449  0  0.00968129  0.0157287  
0.02087  0.0260636  0.0318612  0.0383711  0.0451131  0.0510598  
0.0561353  0.060397  0.064003  0.0668997  0.0690504  0.0704345  
0.0710476  0.070902  0.0700286  0.0684745  0.0663098  0.0636242  
0.0605303  0.0571564  0.0536365  0.0500933  0.0466148  0.0432252  
0.0398619  0.0363746  0.0325587  0.0282415  0.0233972  0.0182068  
0.0129063  0.00889434  0.00623265  0.00354088  5.24959  10.474  
14.8292  17.6488  19.395  19.29  17.0022  13.3598  
9.37061  4.82827  -5.24533  -10.4669  -14.8213  -17.645  
-19.3942  -19.29  -16.9966  -13.3443  -9.35835  -4.82154  
-0.00158741  0.00576374  -0.00839016  0.00161156  0.0138447  -0.00587039  
0.00953361  -0.0153364  0.0183848  -0.0133656  -0.0167548  -0.00275634  
0.00505728  0.0181159  0.0225972  -0.01057  -0.0213163  0.0223673  
-0.0225774  0.0135563  -0.0217669  0.0270748  -0.0189639  0.000490047  
-0.00707406  0.0270629  0.00834154  0.0229289  0.0320693  -0.0156689  
0.0304313  -0.0302056  -0.0281058  -0.0304784  -0.028138  0.0179329  
-0.00328395  0.0028011  0.0378545  -0.0255461  0.0315508  -0.0106835  
0.0353296  0.0101625  0.0295184  -0.0386979  -0.0408876  0.0381684  
0.0431774  -0.0217703  -0.0400381  0.0422566  -0.0346515  -0.0357632  
-0.00203037  0.0226848  0.0422542  0.0537197  -0.0347314  -0.014697  
-0.0524707  -0.0543431  0.0524984  0.0470646  -0.0459916  0.0100916  
0.0387407  -0.0517769  0.0582945  -0.0301319  -0.0448914  -0.0099924  
0.0279574  0.0698573  0.0579126  -0.0500588  0.074317  -0.070608  
-0.0637806  0.0568119  0.0652137  -0.0712821  -0.0564378  -0.0657929  
0.0662161  0.00942943  -0.0301881  0.05064  -0.0602029  -0.0654756  
-0.0511613  0.0790509  0.0742726  0.0784992  -0.0704847  0.080917  
0.0859333  0.0875235  -0.0787272  -0.0765324  -0.0729304  0.0184764  
-0.0159647  -0.0752177  0.0339855  0.0865914  0.0907727  -0.0927338  
0.0784949  -0.0875307  -0.0928795  -0.0797091  0.0980511  -0.0855391  
0.0914817  0.0275894  0.100084  -0.083919  0.0955793  -0.046198  
-0.0259536  -0.0927724  0.103464  -0.0878055  0.0297289  0.0988521  
0.107988  0.00700656  0.107339  0.0663541  -0.102113  0.0165838  
-0.0125721  -0.0913214  0.101285  -0.0775998  -0.0993385  0.108374  
0.114954  0.10288  -0.0944083  -0.037792  0.00572403  0.0423786  
0.103659  -0.115177  -0.0969981  -0.10559  0.119034  -0.0401768  
0.121198  0.10366  -0.0990121  0.0423278  -0.103225  -0.116867  
0.102939  -0.100372  -0.111609  -0.0301669  -0.120747  -0.11624  
0.126483  0.101569  -0.101002  0.125054  0.130032  0.0402693  
0.0996444  -0.0484216  -0.100844  -0.0312431  -0.117153  0.132909  
0.0972737  0.0530091  -0.0998616  0.130939  0.11083  -0.120169  
0.0945761  0.042755  -0.0980574  0.0916645  -0.0954772  0.138408  
-0.122293  0.0886327  -0.0922201  0.134387  0.0855278  -0.0884261  
0.0823372  -0.0842562  0.0789812  -0.079833  0.075393  -0.0751656  
0.0715683  -0.0700674  -0.0570992  0.0669506  -0.126811  -0.132946  
-0.0641576  0.136994  -0.0738454  0.0608027  -0.141009  0.142475  
-0.0679395  -0.0603663  -0.130793  0.138658  -0.147739  0.0630064  
-0.135505  -0.0125947  -0.13404  0.155329  0.139551  0.0303554  
0.155  -4.31435e-005  -0.114836  -0.136618  0.139623  0.174304  
0.0848437  0.15551  -0.158112  -0.138357  0.139055  -0.148303  
0.0814668  0.156529  -0.142132  -0.139316  0.137847  -0.13938  
0.13618  -0.0821356  -0.149519  -0.0577432  -0.138627  0.134083  
0.167738  -0.137021  0.131701  0.129036  -0.134688  0.126119  
-0.131672  -0.161735  0.178966  0.122894  -0.128119  0.166491  
0.119325  -0.12409  0.0777025  0.11581  -0.119643  0.0980097  
0.113098  -0.114744  0.0873023  -0.109371  -0.103239  0.107295  
-0.0552911  -0.195705  -0.161079  0.176273  -0.177285  -0.0957988  
0.156701  0.0110885  -0.172298  0.130175  0.172479  0.0469438  
-0.117318  0.209134  -0.169578  -0.108013  0.180955  0.199515  
-0.19275  -0.179514  0.174952  -0.167994  0.20527  -0.0326047  
-0.105407  0.0576693  -0.174659  0.182323  -0.195926  -0.183131  
0.174493  -0.176158  0.181001  -0.220286  0.13379  -0.183142  
-0.0125645  0.171765  0.204522  0.11569  -0.174194  0.177535  
0.214902  0.167178  -0.179824  0.127857  0.225482  0.171896  
-0.16919  -0.0911254  0.16044  -0.173631  0.139619  0.163958  
-0.161633  -0.211849  0.153913  -0.164974  0.141221  -0.151994  
0.166662  -0.155473  -0.142133  0.244128  -0.251488  0.185244  
0.22527  0.121409  -0.14703  -0.223919  0.0152705  -0.0983373  
-0.246845  -0.190409  -0.253938  0.052972  0.231509  0.269988  
-0.231828  -0.244814  -0.158407  0.234177  0.272678  0.264605  
-0.235688  0.233706  0.0939196  -0.0564932  -0.271869  -0.235744  
-0.164312  0.229803  0.181283  -0.232205  0.261106  0.221008  
-0.288508  -0.224907  0.192665  0.291586  0.208444  -0.0220041  
0.195658  -0.214695  -0.211584  -0.292182  -0.130956  -0.311347  
0.13225  0.1868  0.330689  -0.183356  0.305151  -0.306777  
0.201596  -0.306656  0.173803  -0.271296  0.342892  0.250158  
-0.326219  0.313857  -0.0142285  0.0553491  0.246443  -0.315882  
0.0611908  -0.108087  -0.231206  0.318455  -0.320728  0.35483  
-0.220294  -0.250083  0.318323  -0.321265  0.340902  0.310552  
-0.358169  -0.316646  0.288947  0.14452  -0.303451  -0.369991  
-0.331315  -0.080449  -0.282581  0.224897  -0.236461  0.377567  
0.267628  0.320958  -0.0267767  -0.392456  0.249187  -0.381818  
0.420181  -0.307054  -0.266297  -0.178793  0.391589  -0.00200357  
0.162982  0.410582  -0.395814  -0.340491  -0.19033  0.401493  
0.240807  0.325412  0.344253  -0.421091  -0.405837  0.430179  
0.298344  0.406605  0.0735682  0.0971255  -0.410988  0.404394  
0.447314  -0.411256  -0.131678  0.388509  -0.402861  -0.326107  
-0.29844  -0.369769  -0.474869  -0.456963  0.423287  -0.430236  
-0.100436  -0.324703  0.208122  0.295715  0.475519  0.39485  
-0.369139  0.50506  -0.482911  0.497114  -0.0348541  0.338229  
0.473766  -0.265921  -0.482904  -0.514623  -0.246938  -0.421403  
0.0260325  0.498665  0.195777  -0.508863  0.466082  -0.535489  
0.487697  0.428574  0.331654  -0.496958  -0.460895  0.49873  
0.543226  -0.515293  0.0893434  -0.492264  0.56205  0.148  
0.442328  -0.171127  -0.557439  -0.605813  -0.445115  -0.397647  
-0.0525574  -0.433402  0.591131  0.624822  -0.532329  -0.397933  
0.40684  0.288495  -0.176028  -0.617044  0.56291  0.543417  
0.316664  -0.475698  -0.0468038  0.467621  -0.589269  0.610231  
-0.631967  0.608242  -0.640077  -0.338296  0.0568456  0.242936  
-0.684968  -0.338237  -0.646745  0.54294  0.700661  0.450757  
0.719377  -0.604494  0.111943  0.207484  0.612492  -0.222313  
-0.585359  -0.56172  -0.0756827  -0.535427  -0.51945  -0.770683  
0.439247  0.769721  -0.793569  -0.776502  0.72758  0.825345  
0.390033  -0.247845  0.726724  0.777404  -0.0625755  -0.7963  
-0.849447  0.637629  -0.799336  0.0753797  -0.896059  0.681321  
-0.449727  0.314674  -0.737157  -0.443866  -0.775606  0.909523  
0.922107  0.602911  0.142138  0.864794  0.279062  -0.747857  
-0.691483  -0.982156  -0.2904  -0.12342  -0.982586  0.968929  
-0.683663  0.952259  0.566749  -0.70633  -0.990211  1.06259  
0.520421  0.959322  -0.332316  -0.96096  -0.0824751  0.850565  
-1.01654  0.0841973  -1.14584  -1.11698  -0.579773  0.401599  
0.852986  1.16689  -0.994653  -0.577351  1.18257  0.794857  
0.180714  1.16916  1.20178  -0.938159  0.384202  -0.266629  
-1.25267  -0.374596  -1.2815  -1.22007  1.13501  0.718648  
-0.909621  1.36357  1.11971  0.685001  -0.104849  1.25389  
-0.912894  -1.2978  -0.0213494  1.11037  -1.45892  -1.27583  
-0.82325  -1.3652  0.225682  0.511438  1.46665  1.48017  
1.0758  -0.575974  -1.27279  -0.738965  1.55913  1.03767  
0.231935  1.40548  -1.26515  -1.59823  0.49934  -0.472898  
-0.327784  -1.59519  -1.15774  -1.59007  0.916697  1.4571  
1.74766  1.46155  -1.15975  0.891646  0.165675  -0.127033  
1.83653  -1.66107  -1.84862  1.44084  -0.864913  -1.65872  
0.654054  1.81482  -1.62547  2.05947  1.39152  -0.929741  
-1.99096  1.34854  0.300589  1.8787  -0.131422  -1.62376  
-2.05337  0.640829  -0.58379  -1.43172  2.22142  -0.5693  
-1.9943  1.88779  1.17422  -1.46625  1.97658  1.16012  
-0.149502  2.3011  0.286195  -2.36159  1.86599  -2.13402  
0.840788  -2.19674  2.62868  -1.13396  2.37191  -2.06848  
1.76934  -1.15324  2.3687  -2.52883  -2.04007  0.387619  
1.74809  -0.16906  -2.70689  -0.709206  0.848792  2.78747  
2.43482  -1.7835  -1.84587  2.32444  1.51604  -0.737991  
2.68607  -0.185782  1.50801  0.394976  -3.0197  2.40929  
2.7884  -2.70494  -2.83662  3.05699  -2.72922  1.08201  
3.33127  -2.53193  -2.62875  -1.41114  2.25932  -1.40566  
3.00444  0.476223  2.25908  -3.30282  -0.202951  -3.38641  
3.47076  -0.832616  1.10757  -3.26706  -2.20264  2.93256  
3.12701  -2.32626  2.0198  -0.911097  3.47409  -0.319611  
-3.80997  1.94656  0.507915  3.10309  3.89545  -3.41402  
-3.4521  -3.38202  1.32653  4.18715  -3.13409  3.83346  
-3.37112  2.98246  -1.71141  -1.58885  -4.08073  0.587593  
-4.17583  2.90641  -0.298801  1.41142  4.34253  -2.68863  
3.81277  4.02334  2.84068  -3.06275  4.43111  -4.84071  
2.17616  4.90749  -1.11193  -0.428891  3.98107  -4.31911  
0.573122  2.48845  -4.38029  -4.18815  5.1881  1.6846  
-3.86534  5.014  -4.34802  3.96735  -2.69769  -1.95125  
-5.30266  0.787005  -5.36023  -1.69649  -0.722493  3.72158  
4.97258  1.76227  -3.27538  5.12761  3.05838  5.44214  
-3.99179  6.29539  0.647942  -5.41304  -0.433871  -6.21367  
5.0898  6.39447  -5.03557  3.15938  -5.6453  2.25444  
-2.23813  -4.87199  4.49249  -5.58126  5.49046  -3.20484  
6.18106  -0.847413  1.08333  -6.90054  -6.76341  4.75716  
-1.99607  7.86375  6.53621  2.19657  6.5147  -4.05291  
-5.05429  4.04415  -6.81838  0.798803  -0.469292  6.51801  
-7.97477  7.85122  5.82511  4.01469  -7.25081  7.77071  
3.0204  -2.74173  -6.16156  -7.15994  -3.98535  6.96543  
-1.04171  1.43155  -8.85822  6.0999  -8.72477  -2.46541  
9.4506  9.50239  8.71274  2.76889  5.68804  8.37314  
-5.09851  -6.44736  -8.25295  1.01878  8.39818  -0.571426  
-10.2336  -9.32648  8.13826  5.14036  -9.23875  10.2411  
3.86093  -3.41882  -7.86123  -9.27607  -5.02454  11.8591  
-1.22853  1.78864  7.88878  -11.3839  -11.1796  11.4511  
8.29239  -3.10449  3.54101  10.6412  10.8822  -6.43095  
-11.1744  -8.22487  6.79627  1.39192  10.8855  -0.818732  
13.1912  -13.142  -12.0442  10.756  6.65548  -4.14415  
4.75009  13.8915  -12.4515  -6.19991  -10.0322  -1.14034  
10.3816  2.13461  -14.6698  14.1131  15.3436  -14.4547  
10.1108  -3.95239  4.52688  14.5319  -13.3201  -8.0044  
-9.90836  1.95786  8.33971  13.6111  -1.53131  -16.8331  
16.4771  -15.0474  -15.2307  8.66488  13.0988  -4.59752  
16.5636  5.86035  -7.14834  
1.51633  
1.52355  1.49057  1.44232  1.49907  1.50234  1.47224  
1.48703  1.48848  1.47889  1.42863  1.47337  1.43322  
1.4536  1.32955  1.46483  1.38351  1.43789  1.47385  
1.38211  1.46557  1.42697  1.45611  1.44987  1.44516  
1.43075  1.35702  1.43896  1.37517  1.44923  1.44957  
1.31517  1.25985  1.4023  1.43571  1.45812  1.30915  
1.40196  1.45014  1.36856  1.42061  1.42572  1.35035  
1.43596  1.43344  1.39726  1.36514  1.39882  1.41319  
1.31008  1.38734  1.33045  1.40713  1.33762  1.42529  
1.34711  1.41221  1.26616  1.21552  1.3608  0.994806  
1.22542  0.975178  1.39535  1.27635  1.36923  1.20496  
1.36253  1.34256  1.4391  0.975242  1.35265  1.30605  
1.40592  1.00367  1.00347  0.979928  1.05886  1.40793  
1.35675  1.27962  1.00531  1.41535  1.38236  0.980137  
1.29902  1.33095  1.22863  1.00429  1.08169  1.39277  
1.22817  0.999119  0.998366  1.00249  1.29967  1.37921  
1.19074  1.00457  1.19735  1.24674  1.32989  1.29297  
0.99656  1.35928  1.26411  0.990852  1.00412  1.343  
0.996187  0.999207  1.33276  1.25797  1.0004  1.33261  
1.29809  1.25711  0.99284  1.00026  0.999126  0.998019  
1.27151  1.00869  1.11845  1.3186  0.998526  1.32661  
1.00034  1.00538  1.20044  0.987208  1.29371  0.999688  
1.27886  1.30572  1.23452  0.999847  1.18733  0.999788  
1.00094  1.34076  0.998824  1.24115  0.999624  1.11945  
0.999925  0.994489  0.999797  1.02163  1.00366  1.23754  
1.29115  1.30353  1.18166  1.1958  1.26975  1.22799  
1.24897  1.26521  1.23078  0.999978  0.999981  0.99986  
1.00006  1.17199  1.21373  1.14935  1.19163  1.32051  
1.23125  1.00008  0.998769  1.00003  1.00085  1.18111  
1.20737  0.991137  1.00447  1.04138  1.28364  1.26437  
1.29023  1.12949  1.1667  1.14469  1.33783  1.01646  
0.999979  1.1695  1.26825  1.21603  1.00003  0.924275  
0.999999  1.11394  0.999989  0.999996  1.11275  1.00005  
1.14196  1.23399  1.31913  1.09409  0.999935  0.999202  
0.999089  1.27269  1.13442  1.10188  1.00201  1.00002  
0.999552  1.18538  1.08314  1.06257  1.2544  0.871744  
1.12383  1.19521  1.1034  1.09178  1.21362  1.13663  
1.05582  1  0.930449  1.00479  1.15455  1.12784  
0.992809  1.23003  1.11006  1.08256  0.881054  1.03076  
1.07495  1.0004  1.18839  1.1578  0.999998  0.996331  
0.999997  0.999998  1  1.16543  1.09938  0.979078  
0.975662  0.975619  0.999421  1.07333  1.00792  0.999996  
1.13026  1.09923  1.00001  1.04867  0.989018  1.17739  
0.999931  1.12225  1.09386  0.987235  1.06349  0.858164  
0.999617  0.898015  0.971111  1.08988  1.02439  1.12455  
0.986675  0.881263  0.968764  1.00098  1.05254  1.11043  
1.07804  0.950471  1.00043  0.88696  1.08894  1.00769  
1.12917  0.952506  1.04027  0.934896  0.999999  1.08089  
1  1.0021  1.02805  0.93863  1.02657  1.09375  
1  1.00667  1.09261  1.00023  1.05908  1.07151  
0.881382  0.927226  0.981886  1.01162  1.04086  0.995328  
1  1.00016  1.08855  1  0.918485  1.00047  
0.882062  0.995739  0.962672  1.07963  1.06118  1  
0.971408  1.00206  0.96387  0.912493  0.881033  0.979523  
1.03314  0.999997  1.00972  0.999993  0.909229  0.965255  
1.0684  0.993725  0.963778  1.04963  0.948193  1.00021  
0.908436  0.887466  0.949502  1.05634  1.01153  1.06727  
1.0045  0.869994  0.999994  0.909495  0.937722  1.01138  
0.99984  0.880441  0.91131  0.929374  1.0367  0.935011  
0.937819  0.912395  0.924855  0.993921  0.911171  0.923338  
0.90661  0.921894  1.05035  0.899034  0.915238  0.881236  
0.890424  1.05625  0.998207  0.924468  1.02244  0.899121  
0.993609  1  1.03218  0.883708  1.00418  0.993103  
0.916705  1.00712  1.00236  0.999748  0.999904  0.96866  
0.901056  0.999638  1.04605  0.979518  0.911757  0.991139  
0.918246  1.03716  1.00034  1.01474  0.909513  0.975146  
0.887323  0.995772  0.993858  0.978646  1.03639  1.00452  
0.96871  0.909577  0.959964  0.974255  0.883133  1  
0.880133  0.997966  1  0.999926  0.911168  0.946554  
0.999917  1  1.02747  0.994668  1.02697  0.913056  
0.9359  0.960778  1.00256  1  0.913719  0.892965  
0.92877  0.999983  1  1.00003  0.911763  0.925245  
1.0028  0.883683  0.906635  0.92395  1.01765  0.95542  
0.994019  0.898962  0.92129  0.890456  0.912438  0.896876  
0.958458  1.02028  1  0.997287  0.99753  1  
0.994349  1.00833  0.952277  1.00372  0.999999  0.984172  
0.999682  0.996909  0.999108  0.951104  0.8904  1.00046  
0.920561  1.01479  0.993491  0.989077  0.994273  0.990161  
0.951484  0.998402  0.981842  0.953041  1.00161  1.01051  
0.999178  0.985988  0.955178  0.974645  1  1.00004  
0.957245  0.969034  0.995515  0.998327  1.00033  1.00219  
0.958445  0.965388  0.992336  0.999522  1.007  0.958126  
0.963687  0.993406  0.984491  0.956409  0.963336  0.936797  
0.999522  0.954072  0.96281  0.922291  0.959611  0.951105  
0.947764  0.951418  1  1.00002  0.969993  1.00402  
0.984191  0.999987  0.995667  1  1.00006  1.00072  
1.00089  0.937977  0.999318  1  0.998323  1.00134  
0.984704  1  0.999794  1.00112  1.00023  0.999157  
0.99732  0.998896  0.985807  1  1.00198  1  
1.0006  0.996679  0.987163  0.968092  1  0.999989  
0.999789  0.946434  1  0.994765  0.988591  0.997555  
1.00065  1.00231  1.00005  0.98977  0.99331  0.990559  
0.992388  1.00061  1  0.998653  1.00334  0.990724  
0.992039  1.00082  1  1  0.975913  0.990479  
0.992029  0.999943  0.990459  0.99202  0.984589  0.989326  
0.991398  1.00045  0.98529  0.989427  1.00023  1.00345  
1.00051  0.998972  1  1.00292  0.975578  0.99991  
0.999849  1.00084  1.00002  0.999672  1.00364  0.999936  
1.00015  1.00032  1.00016  1.00278  1.00009  1  
0.999512  1.00078  1.00055  1  1.00322  0.999997  
0.999761  0.999604  1  1  1  1.00119  
1.00227  1.00007  1.0003  1  1.00374  1.00263  
1.00122  1.00181  1.00063  1.00002  1  0.999583  
1.0019  1.00183  0.999928  1.00245  1.00151  1.0043  
1.00197  1.002  0.999662  1.00237  1.00157  1.00399  
1  1.00217  1.00045  1.00163  1  1.00196  
0.999354  1  1.00318  1  0.99999  0.999217  
1  1.0022  0.999998  1  1.00024  0.999165  
1  0.999615  1.00006  1.00002  0.999884  0.999836  
1.00001  0.999008  1.00334  1.00005  0.999797  0.998882  
0.999701  0.999887  1  1.00013  0.999557  0.998838  
0.999988  1.00008  1  1.00001  1.00001  0.999388  
0.998795  1  0.999745  1.00015  0.998817  0.999191  
0.999904  0.998801  0.999095  1  1  1.00001  
1  0.998983  0.998764  0.998786  0.999829  0.998752  
0.998973  1.00029  1  0.998974  0.998941  0.998822  
0.998961  0.998897  0.999337  1.00001  1  1  
0.999904  1.00029  1.00005  1  1.00001  1  
0.999829  0.999025  0.999091  0.999988  1.00041  1  
1  1  1.00007  1.00039  0.999994  1.00002  
1.00002  0.999966  1  1.00015  1.00044  1  
1.00019  1.00042  1.00022  1  1.00003  1.00001  
1.00043  1.00028  1.00001  1.00001  1  1.00042  
1.00032  1  0.999998  1.00045  1  1.00035  
1.00055  1  1.0005  1.00036  1  0.999968  
0.999957  1.00037  1.00042  1.00051  1.00038  1.00039  
1  1  1.00001  0.999971  1.00001  0.99993  
1  0.999952  1.00037  1  1.00043  1  
0.999992  1  1  1.00001  1  1.00016  
0.999947  0.999999  1  1.00019  1  0.999977  
0.999982  0.999998  0.999996  0.999948  1  1  
1  1  0.999965  0.999939  0.999997  1.00003  
0.999959  0.999996  0.999999  0.999975  0.999977  0.999965  
0.999954  1  1  1  1  1  
0.999995  1  1  1  0.999998  1.00003  
1  1.00001  1  0.999999  1  1.00004  
0.999977  1  0.999999  1.00002  1  1  
1  1  0.999998  1  1  1.00004  
0.999965  0.999998  1.00002  1  1.00004  1  
1.00003  1  1  1  1.00004  1  
1.00002  1  0.999999  1  1  1  
1  1  1.00004  1.00002  1  1.00001  
1  1  1  1  1  0.999999  
1  0.999999  1  0.999998  1  1  
1.00002  1  1  1  1  1  
1  1  1.00002  1  1  1  
1  0.999999  1  1  1  1  
1  1.00002  1  1  1  1  
1  1  1  1  1  1  
1  1  1  1  1  1  
1  1  1  1  1  1  
1  1  1  1  1  1  
1  1  1  1  1  1  
1  1  1  1  1  1  
1  1  1  1  1  1  
1  0.999998  1  1  1  1  
1  1  1  1  1  1  
1  1  1  1  1  1  
1  1  1  1  1  1  
1  1  1  1  1  1  
1  1  1  1  1  1  
1  1  1  1  1  1  
1  1  1  1  1  1  
1  1  1  1  1  1  
1  1  1  1  1  1  
1  1  1  1  1  1  
1  1  1  1  1  1  
1  1  1  1  1  1  
1  1  1  1  1  1  
1  1  1  1  1  1  